LAMMPS data file via write_data, version 19 Oct 2016, timestep = 1

6 atoms
1 atom types
4 bonds
2 bond types
2 angles
1 angle types

6.0000000000000000e+00 1.5000000000000000e+01 xlo xhi
-2.0000000000000000e+00 2.0000000000000000e+00 ylo yhi
4.0000000000000000e+00 8.0000000000000000e+00 zlo zhi

Masses

1 12.011

Pair Coeffs # lj/charmm/coul/charmm

1 0.0951 3.47299 0.0951 3.47299

Bond Coeffs # harmonic

1 525 1.39
2 525 1.39

Angle Coeffs # harmonic

1 50 120

Atoms # full

1 1 1 0.0000000000000000e+00 8.1300000000000008e+00 0.0000000000000000e+00 7.3700000000000001e+00 0 0 0
2 1 1 0.0000000000000000e+00 8.8399999999999999e+00 0.0000000000000000e+00 6.1399999999999997e+00 0 0 0
3 1 1 0.0000000000000000e+00 8.1300000000000008e+00 0.0000000000000000e+00 4.9100000000000001e+00 0 0 0
4 1 1 0.0000000000000000e+00 1.2000000000000000e+01 0.0000000000000000e+00 6.1399999999999997e+00 0 0 0
5 1 1 0.0000000000000000e+00 1.2000000000000000e+01 -6.9999999999999996e-01 4.9100000000000001e+00 0 0 0
6 1 1 0.0000000000000000e+00 1.2000000000000000e+01 -6.9999999999999996e-01 7.3700000000000001e+00 0 0 0

Velocities

1 0.0000000000000000e+00 0.0000000000000000e+00 0.0000000000000000e+00
2 0.0000000000000000e+00 0.0000000000000000e+00 0.0000000000000000e+00
3 0.0000000000000000e+00 0.0000000000000000e+00 0.0000000000000000e+00
4 0.0000000000000000e+00 0.0000000000000000e+00 0.0000000000000000e+00
5 0.0000000000000000e+00 0.0000000000000000e+00 0.0000000000000000e+00
6 0.0000000000000000e+00 0.0000000000000000e+00 0.0000000000000000e+00

Bonds

1 1 2 1
2 1 3 2
3 1 5 4
4 1 6 4

Angles

1 1 1 2 3
2 1 6 4 5
