LAMMPS data file using DREIDING for graphene

6  atoms
4  bonds
2  angles

1  atom types
2  bond types
1  angle types

6 15 xlo xhi
-2 2 ylo yhi
4 8 zlo zhi
1000 extra bond per atom
1000 extra angle per atom
1000 extra dihedral per atom
1000 extra improper per atom

Masses

  1     12.011000     # C_R

Atoms

     1   1   1    0.00000      8.13000000      0.00000000      7.37000000
     2   1   1    0.00000      8.84000000      0.00000000      6.14000000
     3   1   1    0.00000      8.13000000      0.00000000      4.91000000
     4   1   1    0.00000     12.00000000      0.00000000      6.14000000
     5   1   1    0.00000     12.00000000     -0.70000000      4.91000000
     6   1   1    0.00000     12.00000000     -0.70000000      7.37000000


Bonds

1  1  2  1 
2  1  3  2 
3  1  6  4 
4  1  5  4 

Angles

1  1  1  2  3 
2  1  6  4  5 

Pair Coeffs

  1      0.095100     3.472990   # C_R

Bond Coeffs

  1    525.000000      1.390000    # C_R C_R
  2    525.000000      1.390000    # C_R C_R

Angle Coeffs

  1     50.000000    120.000000    # X C_R X 
